% Model:              marimba.mph
% Version:            COMSOL 5.5.0.359
% Date:               Jan 20 2021, 23:46
% Table:              Eigenfrequencies (Study 1) - 
% a (m)                                           lambda (Hz)                                       Angular frequency (rad/s)                         Damping ratio (1)                                 Quality factor (1)
0.001                                             2.6853255510280436E-4i                            0.001687239804721333i                             1                                                 0.5
0.001                                             3.930628493679976E-4i                             0.0024696867199471453i                            1                                                 0.5
0.001                                             7.088871965468006E-4i                             0.004454069617790585i                             1                                                 0.5
0.001                                             0.0011865601483176805i                            0.007455377289994481i                             1                                                 0.5
0.001                                             2.668129943121483E-4                              0.0016764354856266808                             0                                                 Inf
0.001                                             3.3220147945802527E-4                             0.0020872834547539854                             0                                                 Inf
0.001                                             5929.088887457426                                 37253.564182634254                                0                                                 Inf
0.001                                             8113.523198478159                                 50978.769750138694                                0                                                 Inf
0.001                                             8408.404237739927                                 52831.56196339408                                 0                                                 Inf
0.001                                             12277.57777480131                                 77142.29628238623                                 0                                                 Inf
0.001                                             14030.942724381248                                88159.01317171057                                 0                                                 Inf
0.001                                             15519.658650137015                                97512.89120298346                                 0                                                 Inf
0.002                                             2.8269671398568376E-4i                            0.001776235839702798i                             1                                                 0.5
0.002                                             3.247580072059911E-4i                             0.0020405147392656055i                            1                                                 0.5
0.002                                             4.487768927615346E-4i                             0.0028197483788009827i                            1                                                 0.5
0.002                                             5.012979811573213E-4i                             0.0031497481097264705i                            1                                                 0.5
0.002                                             5.6971769698283E-4i                               0.003579641862922709i                             1                                                 0.5
0.002                                             7.680904243581268E-4i                             0.004826054468912316i                             1                                                 0.5
0.002                                             5794.285900532358                                 36406.57203582275                                 0                                                 Inf
0.002                                             8089.685742901946                                 50828.99459950168                                 0                                                 Inf
0.002                                             8158.829430672946                                 51263.43720258864                                 0                                                 Inf
0.002                                             12367.614978661635                                77708.01671878096                                 0                                                 Inf
0.002                                             13910.74625758468                                 87403.79649755948                                 0                                                 Inf
0.002                                             15380.136661401219                                96636.24869333023                                 0                                                 Inf
0.003                                             2.977019446185673E-4i                             0.0018705164843461728i                            1                                                 0.5
0.003                                             4.652544933306656E-4i                             0.002923280196594521i                             1                                                 0.5
0.003                                             9.2800684026695E-4i                               0.0058308389437274535i                            1                                                 0.5
0.003                                             3.056131955634757E-4                              0.001920224340044632                              0                                                 Inf
0.003                                             3.929262512354136E-4                              0.0024688284485675054                             0                                                 Inf
0.003                                             5.769615398673926E-4                              0.0036251562701025103                             0                                                 Inf
0.003                                             5656.960721388822                                 35543.73248792228                                 0                                                 Inf
0.003                                             7887.268338279957                                 49557.16853686338                                 0                                                 Inf
0.003                                             8055.61938724501                                  50614.94937416887                                 0                                                 Inf
0.003                                             12458.949247587861                                78281.88685534021                                 0                                                 Inf
0.003                                             13778.349159789554                                86571.92099797992                                 0                                                 Inf
0.003                                             15211.536895613426                                95576.90512213846                                 0                                                 Inf
0.004                                             1.238899784804728E-4i                             7.784236924953019E-4i                             1                                                 0.5
0.004                                             4.898559188651869E-4i                             0.003077855512048698i                             1                                                 0.5
0.004                                             8.712052247459489E-4i                             0.005473943867661835i                             1                                                 0.5
0.004                                             1.6463889747397886E-4                             0.0010344567015987502                             0                                                 Inf
0.004                                             3.2471893557457836E-4                             0.0020402692449651852                             0                                                 Inf
0.004                                             5.793555634444936E-4                              0.0036401983638671928                             0                                                 Inf
0.004                                             5498.597341672352                                 34548.70602729245                                 0                                                 Inf
0.004                                             7588.990901258171                                 47683.036127104904                                0                                                 Inf
0.004                                             8008.817315622043                                 50320.88328540188                                 0                                                 Inf
0.004                                             12530.227974503161                                78729.74430500889                                 0                                                 Inf
0.004                                             13620.726336491276                                85581.54759055602                                 0                                                 Inf
0.004                                             14986.960499930063                                94165.8500124414                                  0                                                 Inf
0.005                                             2.8643946208679546E-4i                            0.0017997522195801773i                            1                                                 0.5
0.005                                             4.190841673775728E-4i                             0.002633183482938356i                             1                                                 0.5
0.005                                             6.34911544979113E-4i                              0.003989266890771454i                             1                                                 0.5
0.005                                             9.204169046103937E-4i                             0.005783149971527741i                             1                                                 0.5
0.005                                             3.9641217894806075E-4                             0.0024907311783535003                             0                                                 Inf
0.005                                             6.912700339509274E-4                              0.004343377720614001                              0                                                 Inf
0.005                                             5335.720886222393                                 33525.32307552378                                 0                                                 Inf
0.005                                             7271.626664850087                                 45688.977819881366                                0                                                 Inf
0.005                                             7949.933414354065                                 49950.9048221255                                  0                                                 Inf
0.005                                             12607.492331605168                                79215.2105783209                                  0                                                 Inf
0.005                                             13440.59605591951                                 84449.75565828936                                 0                                                 Inf
0.005                                             14731.00748511122                                 92557.64979040333                                 0                                                 Inf
0.006                                             3.1572033108105154E-4i                            0.0019837293454263373i                            1                                                 0.5
0.006                                             4.7537962773198906E-4i                            0.002986898292298135i                             1                                                 0.5
0.006                                             5.195037505647304E-4i                             0.0032641383325730028i                            1                                                 0.5
0.006                                             5.586148696193027E-5                              3.509880741164043E-4                              0                                                 Inf
0.006                                             3.7200986759225164E-4                             0.002337406934181459                              0                                                 Inf
0.006                                             4.4592588822035036E-4                             0.002801834988957112                              0                                                 Inf
0.006                                             5173.9685567817605                                32509.003215780325                                0                                                 Inf
0.006                                             6942.129756328406                                 43618.68768549684                                 0                                                 Inf
0.006                                             7884.219013270879                                 49538.009062769524                                0                                                 Inf
0.006                                             12693.533951475363                                79755.82602009524                                 0                                                 Inf
0.006                                             13254.76800634828                                 83282.16358756158                                 0                                                 Inf
0.006                                             14441.638241311743                                90739.48920941279                                 0                                                 Inf
0.007                                             3.913416979665326E-4i                             0.002458872406750029i                             1                                                 0.5
0.007                                             4.6364446012944646E-4i                            0.0029131640596405496i                            1                                                 0.5
0.007                                             7.585340034287481E-4i                             0.00476600970533962i                              1                                                 0.5
0.007                                             3.826094959972958E-4                              0.002404006363637596                              0                                                 Inf
0.007                                             7.237143544666291E-4                              0.004547231398579683                              0                                                 Inf
0.007                                             9.118804086165575E-4                              0.0057295135853244715                             0                                                 Inf
0.007                                             5000.890743358539                                 31421.523241480772                                0                                                 Inf
0.007                                             6609.257239280658                                 41527.18797721854                                 0                                                 Inf
0.007                                             7808.53883550507                                  49062.49648178665                                 0                                                 Inf
0.007                                             12784.804730097087                                80329.29723530609                                 0                                                 Inf
0.007                                             13038.970796170921                                81926.26972724484                                 0                                                 Inf
0.007                                             14119.654774949848                                88716.40742441297                                 0                                                 Inf
0.008                                             1.6463192518415874E-4i                            0.001034412893409795i                             1                                                 0.5
0.008                                             3.086575682712999E-4i                             0.0019393526979120117i                            1                                                 0.5
0.008                                             5.017060821548219E-4i                             0.003152312283917811i                             1                                                 0.5
0.008                                             3.543529214444801E-4                              0.0022264650695761196                             0                                                 Inf
0.008                                             4.6425446305251467E-4                             0.0029169968210441084                             0                                                 Inf
0.008                                             5.284848699616876E-4                              0.00332056837000999                               0                                                 Inf
0.008                                             4817.306287555712                                 30268.028086153885                                0                                                 Inf
0.008                                             6248.199418639645                                 39258.59478352465                                 0                                                 Inf
0.008                                             7722.69031562853                                  48523.09432305526                                 0                                                 Inf
0.008                                             12814.387159356178                                80515.1691201775                                  0                                                 Inf
0.008                                             12863.699504068445                                80825.00771993618                                 0                                                 Inf
0.008                                             13753.246570640265                                86414.19677866495                                 0                                                 Inf
0.009000000000000001                              3.255381388320028E-4i                             0.0020454164508358283i                            1                                                 0.5
0.009000000000000001                              3.898210992478321E-4i                             0.002449318203222574i                             1                                                 0.5
0.009000000000000001                              7.154019653219547E-4i                             0.004495003117238306i                             1                                                 0.5
0.009000000000000001                              3.8554265366689806E-4                             0.0024224359368108816                             0                                                 Inf
0.009000000000000001                              4.309817990086737E-4                              0.0027079385071931243                             0                                                 Inf
0.009000000000000001                              6.44936083447145E-4                               0.004052252923585049                              0                                                 Inf
0.009000000000000001                              4644.989930218447                                 29185.332481545676                                0                                                 Inf
0.009000000000000001                              5876.809086814977                                 36925.08050737534                                 0                                                 Inf
0.009000000000000001                              7623.981099545767                                 47902.886026880835                                0                                                 Inf
0.009000000000000001                              12572.886120557683                                78997.77334153018                                 0                                                 Inf
0.009000000000000001                              12943.096605676985                                81323.8744221956                                  0                                                 Inf
0.009000000000000001                              13354.82778310512                                 83910.85770671982                                 0                                                 Inf
